VARIABLES = "X","Y","dX","dY","sig_mean_t","dsig_dt","ux","uy","sigxx","sigyy","sig_1","sig_3","temp","fc","sign","tau","dnu_dt"
ZONE N= 483, E= 640, F=FEPOINT, ET=TRIANGLE
 0.000 80000.000 -0.000 79999.142 199831.672864   199.831673    -0.000000    -0.858343 67320.797277 412275.217596 412519.507556 67076.507317     0.000000 57518.852457 153437.257377 149581.206883     0.057971
10000.000 80000.000 10000.008 79999.165 188614.072136   188.614072     0.008212    -0.835248 92162.751657 360511.021470 384467.733784 68206.039343     0.000000 48582.453043 147271.462953 136945.330815     0.049131
20000.000 80000.000 20000.009 79999.226 138268.959816   138.268960     0.009378    -0.774159 102197.478323 229648.025235 332194.321346  -348.817789     0.000000 94323.222975 82786.966995 143995.403172     0.000000
30000.000 80000.000 30000.001 79999.302 82376.833105    82.376833     0.000879    -0.698457 97667.907801 100036.491651 206588.948688 -8884.549236     0.000000 66312.466376 44983.825245 93302.761522     0.000000
40000.000 80000.000 39999.988 79999.371 54727.513316    54.727513    -0.012159    -0.628805 96613.892720 34732.139239 139500.412058 -8154.380098     0.000000 46680.809734 28759.317941 63936.400499     0.000000
50000.000 80000.000 49999.976 79999.431 32379.034901    32.379035    -0.023880    -0.568799 65472.950535 12236.733227 87722.788237 -10013.104475     0.000000 33668.361753 14420.868703 42320.882975     0.000000
60000.000 80000.000 59999.967 79999.484 20626.913329    20.626913    -0.032715    -0.515676 45171.982026  4332.609964 56480.203310 -6975.611320     0.000000 22144.168341  8888.342338 27477.173743     0.000000
70000.000 80000.000 69999.961 79999.533 14188.674869    14.188675    -0.039000    -0.467280 32345.063925  1707.755761 41249.336860 -7196.517173     0.000000 18028.702349  4914.946335 20977.670150     0.000000
80000.000 80000.000 79999.957 79999.578  8728.756116     8.728756    -0.043354    -0.421822 20545.189987   403.824691 27584.322982 -6635.308304     0.000000 13665.775290  1919.599518 14817.535001     0.000000
90000.000 80000.000 89999.954 79999.622  5751.048229     5.751048    -0.046203    -0.378440 13543.422888   259.092860 20816.190618 -7013.674870     0.000000 12084.410347   -56.208498 12050.685248     0.000000
100000.000 80000.000 99999.952 79999.663  2676.588081     2.676588    -0.047860    -0.336591  6429.427581    -5.616187 14229.682985 -7805.871590     0.000000 10919.864792 -2296.982946  9541.675024     0.000000
110000.000 80000.000 109999.951 79999.704   750.076848     0.750077    -0.048540    -0.296001  1651.921839   148.262597 10666.543312 -8866.358876     0.000000 10847.874750 -3983.133329  8457.994752     0.000000
120000.000 80000.000 119999.952 79999.743 -1306.038840    -1.306039    -0.048397    -0.256562 -3244.631923   110.138708  7546.146681 -10680.639896     0.000000 11566.796054 -6123.943252  7892.430103     0.000000
130000.000 80000.000 129999.952 79999.782 -2737.004514    -2.737005    -0.047544    -0.218248 -6849.122906   280.312072  5704.301416 -12273.112250     0.000000 12451.703764 -7778.758833  7784.448464     0.000000
140000.000 80000.000 139999.954 79999.819 -4268.659155    -4.268659    -0.046072    -0.181106 -10532.217792   287.435820  4273.699138 -14518.481110     0.000000 14029.514373 -9820.436048  8137.252744     0.000000
150000.000 80000.000 149999.956 79999.855 -5376.144183    -5.376144    -0.044055    -0.145210 -13333.605384   430.859346  3305.365585 -16208.111623     0.000000 15247.428882 -11329.742321  8449.583489     0.000000
160000.000 80000.000 159999.958 79999.889 -6567.761876    -6.567762    -0.041560    -0.110656 -16192.086191   429.457689  2569.721666 -18332.350168     0.000000 16914.961926 -13106.832210  9050.862600     0.000000
170000.000 80000.000 169999.961 79999.922 -7411.204224    -7.411204    -0.038643    -0.077544 -18326.591566   539.701428  2031.396781 -19818.286918     0.000000 18074.710170 -14355.865993  9461.190574     0.000000
180000.000 80000.000 179999.965 79999.954 -8330.567159    -8.330567    -0.035363    -0.045970 -20507.926750   514.565569  1588.542934 -21581.904115     0.000000 19506.673292 -15789.292353 10033.097881     0.000000
190000.000 80000.000 189999.968 79999.984 -8933.614986    -8.933615    -0.031771    -0.016025 -22033.291026   592.615060  1289.925752 -22730.601718     0.000000 20436.475411 -16725.469851 10401.193501     0.000000
200000.000 80000.000 199999.972 80000.012 -9606.685698    -9.606686    -0.027920     0.012218 -23599.717726   543.672052   999.487302 -24055.532976     0.000000 21524.208771 -17791.777907 10849.142027     0.000000
210000.000 80000.000 209999.976 80000.039 -9985.214955    -9.985215    -0.023857     0.038692 -24557.634938   593.119045   849.212142 -24813.728034     0.000000 22151.174858 -18397.992990 11112.379064     0.000000
220000.000 80000.000 219999.980 80000.063 -10427.303043   -10.427303    -0.019631     0.063356 -25552.064786   526.537482   658.295259 -25683.822563     0.000000 22865.447476 -19098.293108 11406.471612     0.000000
230000.000 80000.000 229999.985 80000.086 -10599.624320   -10.599624    -0.015287     0.086177 -25991.366383   552.268014   601.613390 -26040.711758     0.000000 23164.543480 -19380.130471 11536.465197     0.000000
240000.000 80000.000 239999.989 80000.107 -10827.725708   -10.827726    -0.010867     0.107145 -26462.586259   476.044560   484.700845 -26471.242544     0.000000 23511.619897 -19732.256697 11672.265879     0.000000
250000.000 80000.000 249999.994 80000.126 -10817.148396   -10.817148    -0.006412     0.126258 -26444.510256   483.354105   483.851256 -26445.007407     0.000000 23488.213493 -19712.792741 11660.537849     0.000000
260000.000 80000.000 259999.998 80000.144 -10853.522186   -10.853522    -0.001959     0.143538 -26453.434633   404.981387   424.160300 -26472.613545     0.000000 23495.696765 -19748.420084 11646.644715     0.000000
270000.000 80000.000 270000.002 80000.159 -10687.616011   -10.687616     0.002458     0.159009 -26049.175270   398.896843   452.176101 -26102.454527     0.000000 23176.770478 -19463.796870 11498.492356     0.000000
280000.000 80000.000 280000.007 80000.173 -10559.380006   -10.559380     0.006807     0.172717 -25666.804009   324.291995   436.348869 -25778.860883     0.000000 22886.553872 -19225.058445 11351.518805     0.000000
290000.000 80000.000 290000.011 80000.185 -10268.044991   -10.268045     0.011062     0.184711 -24952.470692   309.162715   474.504290 -25117.812267     0.000000 22313.638017 -18719.733128 11081.798140     0.000000
300000.000 80000.000 300000.015 80000.195 -10005.245923   -10.005246     0.015197     0.195053 -24254.966265   242.376050   491.351965 -24503.942180     0.000000 21776.351038 -18255.118644 10823.279852     0.000000
310000.000 80000.000 310000.019 80000.204 -9618.641605    -9.618642     0.019190     0.203809 -23306.451691   221.711840   527.466050 -23612.205901     0.000000 20999.157322 -17577.287913 10452.784574     0.000000
320000.000 80000.000 320000.023 80000.211 -9252.053126    -9.252053     0.023025     0.211055 -22369.994844   165.067341   567.770200 -22772.697703     0.000000 20269.267506 -16937.580727 10106.719070     0.000000
330000.000 80000.000 330000.027 80000.217 -8798.865800    -8.798866     0.026685     0.216868 -21258.824591   141.546672   594.736674 -21712.014594     0.000000 19340.302703 -16135.326777  9659.106637     0.000000
340000.000 80000.000 340000.030 80000.221 -8358.095498    -8.358095     0.030158     0.221331 -20155.403257    95.974062   651.206606 -20710.635801     0.000000 18472.054217 -15370.175199  9249.949098     0.000000
350000.000 80000.000 350000.033 80000.225 -7864.305273    -7.864305     0.033435     0.224527 -18945.876678    71.544022   665.696232 -19540.028888     0.000000 17442.494193 -14488.597608  8749.335628     0.000000
360000.000 80000.000 360000.037 80000.227 -7376.417615    -7.376418     0.036510     0.226543 -17740.357676    36.955401   732.875542 -18436.277817     0.000000 16486.880575 -13643.989477  8300.486889     0.000000
370000.000 80000.000 370000.039 80000.227 -6864.561057    -6.864561     0.039376     0.227465 -16487.912451    12.965915   734.260698 -17209.207234     0.000000 15403.753681 -12723.340251  7769.749530     0.000000
380000.000 80000.000 380000.042 80000.227 -6353.227401    -6.353227     0.042032     0.227380 -15236.345392   -11.400371   808.388822 -16056.134585     0.000000 14406.555087 -11840.003733  7302.552847     0.000000
390000.000 80000.000 390000.044 80000.226 -5842.076343    -5.842076     0.044476     0.226371 -13986.920912   -34.062311   797.927427 -14818.910650     0.000000 13311.109929 -10914.701130  6762.289251     0.000000
400000.000 80000.000 400000.047 80000.225 -5327.173929    -5.327174     0.046711     0.224522 -12735.855045   -49.362385   876.815614 -13662.033043     0.000000 12311.898667 -10027.320879  6295.506139     0.000000
410000.000 80000.000 410000.049 80000.222 -4831.728017    -4.831728     0.048738     0.221914 -11525.992107   -70.155134   857.112680 -12453.259921     0.000000 11238.960465 -9125.666770  5763.560403     0.000000
420000.000 80000.000 420000.051 80000.219 -4329.280974    -4.329281     0.050563     0.218627 -10312.543794   -77.730543   940.107168 -11330.381506     0.000000 10270.933057 -8262.759337  5313.277454     0.000000
430000.000 80000.000 430000.052 80000.215 -3860.975532    -3.860976     0.052188     0.214736 -9169.978876   -96.362402   914.879675 -10181.220952     0.000000  9249.069990 -7407.195796  4804.752513     0.000000
440000.000 80000.000 440000.054 80000.210 -3383.333321    -3.383333     0.053622     0.210313 -8022.405863   -97.594106  1003.005725 -9123.005695     0.000000  8339.593269 -6591.502840  4384.691565     0.000000
450000.000 80000.000 450000.055 80000.205 -2950.379951    -2.950380     0.054871     0.205428 -6966.962218  -113.949664   977.226361 -8058.138242     0.000000  7392.005894 -5799.297092  3912.427639     0.000000
460000.000 80000.000 460000.056 80000.200 -2506.544671    -2.506545     0.055942     0.200145 -5905.544242  -110.162969  1073.659294 -7089.366505     0.000000  6563.859890 -5048.610055  3534.693857     0.000000
470000.000 80000.000 470000.057 80000.195 -2114.341002    -2.114341     0.056844     0.194529 -4950.170301  -124.248104  1054.266270 -6128.684675     0.000000  5710.077160 -4332.946939  3110.308997     0.000000
480000.000 80000.000 480000.058 80000.189 -1710.374958    -1.710375     0.057586     0.188635 -3988.243894  -116.656004  1165.354308 -5270.254207     0.000000  4983.511478 -3661.352078  2786.700231     0.000000
490000.000 80000.000 490000.058 80000.183 -1361.937760    -1.361938     0.058175     0.182519 -3140.092907  -128.557716  1162.861565 -4431.512189     0.000000  4242.186145 -3032.918750  2422.434895     0.000000
500000.000 80000.000 500000.059 80000.176 -1001.401574    -1.001402     0.058623     0.176230 -2285.132154  -118.231622  1299.817716 -3703.181492     0.000000  3637.821219 -2452.431690  2166.362205     0.000000
510000.000 80000.000 510000.059 80000.170  -697.792273    -0.697792     0.058936     0.169817 -1546.612365  -128.089089  1330.843600 -3005.545054     0.000000  3030.580101 -1921.447890  1877.711367     0.000000
520000.000 80000.000 520000.059 80000.163  -382.179726    -0.382180     0.059126     0.163320  -801.283177  -115.948165  1510.659067 -2427.890409     0.000000  2571.393774 -1443.253040  1705.441950     0.000000
530000.000 80000.000 530000.059 80000.157  -122.902822    -0.122903     0.059201     0.156782  -171.034732  -123.932040  1597.967567 -1892.934339     0.000000  2123.730184 -1020.208863  1511.604867     0.000000
540000.000 80000.000 540000.059 80000.150   147.949112     0.147949     0.059170     0.150235   465.822411  -110.744542  1836.087138 -1481.009269     0.000000  1827.385978  -651.735167  1436.344878     0.000000
550000.000 80000.000 550000.059 80000.144   364.585823     0.364586     0.059041     0.143715   992.048152  -117.042176  1994.015048 -1119.009072     0.000000  1552.430811  -340.753042  1347.978986     0.000000
560000.000 80000.000 560000.059 80000.137   592.124219     0.592124     0.058824     0.137248  1524.532216  -103.434091  2281.661505  -860.563380     0.000000  1405.627583   -75.007159  1360.623288     0.000000
570000.000 80000.000 570000.059 80000.131   768.692846     0.768693     0.058527     0.130863  1953.101817  -108.238985  2490.612849  -645.750017     0.000000  1275.080539   138.340699  1358.084959     0.000000
580000.000 80000.000 580000.058 80000.125   955.319469     0.955319     0.058158     0.124580  2387.473434   -94.706707  2788.723342  -495.956616     0.000000  1227.180119   325.213374  1422.308143     0.000000
590000.000 80000.000 590000.058 80000.118  1094.999920     1.095000     0.057725     0.118422  2726.210809   -98.211001  3005.925939  -377.926131     0.000000  1184.428796   468.036886  1465.250927     0.000000
600000.000 80000.000 600000.057 80000.112  1243.787102     1.243787     0.057235     0.112404  3070.224954   -85.135909  3276.121543  -291.032497     0.000000  1184.169401   600.756013  1544.623009     0.000000
610000.000 80000.000 610000.057 80000.107  1350.138417     1.350138     0.056694     0.106544  3327.857260   -87.525060  3468.220734  -227.888534     0.000000  1182.778991   696.138783  1600.462261     0.000000
620000.000 80000.000 620000.056 80000.101  1464.589245     1.464589     0.056111     0.100851  3590.202780   -75.188592  3690.442980  -175.428792     0.000000  1199.348090   791.039151  1673.971581     0.000000
630000.000 80000.000 630000.055 80000.095  1541.361585     1.541362     0.055490     0.095339  3775.905482   -76.637679  3841.512686  -142.244883     0.000000  1212.800923   853.694509  1725.017629     0.000000
640000.000 80000.000 640000.055 80000.090  1625.211784     1.625212     0.054838     0.090014  3965.744345   -65.236063  4009.786584  -109.278301     0.000000  1231.314663   920.487920  1783.607415     0.000000
650000.000 80000.000 650000.054 80000.085  1676.195431     1.676195     0.054160     0.084883  4088.776348   -65.907315  4115.387495   -92.518461     0.000000  1246.401910   959.458028  1822.076727     0.000000
660000.000 80000.000 660000.053 80000.080  1733.253383     1.733253     0.053461     0.079952  4215.373552   -55.565433  4231.067096   -71.258978     0.000000  1260.368313  1004.322541  1862.961838     0.000000
670000.000 80000.000 670000.053 80000.075  1762.160717     1.762161     0.052747     0.075223  4284.792415   -55.606695  4292.706209   -63.520489     0.000000  1270.979781  1025.536186  1886.301492     0.000000
680000.000 80000.000 680000.052 80000.071  1796.181581     1.796182     0.052021     0.070698  4357.226615   -46.390820  4360.524756   -49.688961     0.000000  1277.959877  1052.864468  1909.678558     0.000000
690000.000 80000.000 690000.051 80000.066  1806.557918     1.806558     0.051287     0.066377  4381.673759   -45.934757  4382.530114   -46.791112     0.000000  1281.628834  1060.539195  1917.952351     0.000000
700000.000 80000.000 700000.051 80000.062  1821.147705     1.821148     0.050548     0.062261  4408.618499   -37.864006  4408.625816   -37.871324     0.000000  1281.137964  1073.752961  1925.389741     0.000000
710000.000 80000.000 710000.050 80000.058  1816.306947     1.816307     0.049809     0.058347  4396.164559   -37.027886  4396.522582   -37.385908     0.000000  1277.283966  1071.091214  1919.938695     0.000000
720000.000 80000.000 720000.049 80000.055  1814.852442     1.814852     0.049072     0.054632  4385.730244   -30.084383  4387.445826   -31.799965     0.000000  1269.782671  1073.011483  1913.589560     0.000000
730000.000 80000.000 730000.048 80000.051  1797.833743     1.797834     0.048340     0.051114  4343.771285   -28.970301  4347.099741   -32.298757     0.000000  1258.804656  1062.550867  1896.335176     0.000000
740000.000 80000.000 740000.048 80000.048  1783.454385     1.783454     0.047615     0.047787  4303.398559   -23.108035  4309.292410   -29.001885     0.000000  1245.193521  1055.571688  1878.536534     0.000000
750000.000 80000.000 750000.047 80000.045  1756.996276     1.756996     0.046898     0.044648  4238.594556   -21.803494  4246.444210   -29.653148     0.000000  1227.981755  1039.371192  1851.604470     0.000000
760000.000 80000.000 760000.046 80000.042  1732.514380     1.732514     0.046193     0.041691  4174.990459   -16.955947  4185.958385   -27.923872     0.000000  1209.336527  1025.546692  1824.664542     0.000000
770000.000 80000.000 770000.046 80000.039  1699.043149     1.699043     0.045500     0.038909  4093.238245   -15.534687  4105.967790   -28.264232     0.000000  1186.998714  1005.293773  1790.174978     0.000000
780000.000 80000.000 780000.045 80000.036  1666.969158     1.666969     0.044821     0.036298  4012.347279   -11.621300  4028.315536   -27.589556     0.000000  1164.426393   986.386717  1756.258423     0.000000
790000.000 80000.000 790000.044 80000.034  1628.598606     1.628599     0.044156     0.033851  3918.780966   -10.144312  3936.024948   -27.388294     0.000000  1138.129267   963.465016  1716.208277     0.000000
800000.000 80000.000 800000.044 80000.032  1591.128401     1.591128     0.043508     0.031560  3825.784048    -7.075884  3846.105469   -27.397305     0.000000  1112.688869   940.978388  1677.275902     0.000000
810000.000 80000.000 810000.043 80000.029  1549.668425     1.549668     0.042875     0.029420  3724.796762    -5.592542  3745.776115   -26.571895     0.000000  1083.565540   916.515107  1633.474604     0.000000
820000.000 80000.000 820000.042 80000.027  1508.690077     1.508690     0.042260     0.027424  3624.131837    -3.275652  3647.851403   -26.995218     0.000000  1056.225402   891.716437  1591.255265     0.000000
830000.000 80000.000 830000.042 80000.026  1465.661874     1.465662     0.041662     0.025565  3519.413405    -1.824906  3543.145252   -25.556753     0.000000  1025.322049   866.618748  1545.293298     0.000000
840000.000 80000.000 840000.041 80000.024  1422.769523     1.422770     0.041081     0.023836  3414.812317    -0.165463  3440.847258   -26.200403     0.000000   996.938768   840.561512  1501.275675     0.000000
850000.000 80000.000 850000.041 80000.022  1379.425520     1.379426     0.040519     0.022230  3309.398301     1.222947  3334.838521   -24.217274     0.000000   965.185821   815.546675  1454.513826     0.000000
860000.000 80000.000 860000.040 80000.021  1335.938418     1.335938     0.039973     0.020740  3203.935273     2.316929  3231.197051   -24.944848     0.000000   936.496426   789.090627  1409.950801     0.000000
870000.000 80000.000 870000.039 80000.019  1293.285312     1.293285     0.039446     0.019361  3100.263475     3.621275  3126.402795   -22.518045     0.000000   904.695422   764.712165  1363.522721     0.000000
880000.000 80000.000 880000.039 80000.018  1250.270355     1.250270     0.038936     0.018085  2996.411274     4.237577  3023.886780   -23.237929     0.000000   876.317754   738.543248  1319.443703     0.000000
890000.000 80000.000 890000.038 80000.017  1209.093950     1.209094     0.038443     0.016906  2896.382486     5.442993  2922.309485   -20.484006     0.000000   845.138341   715.214367  1274.266961     0.000000
900000.000 80000.000 900000.038 80000.016  1167.390284     1.167390     0.037967     0.015818  2796.073011     5.663671  2822.876353   -21.139671     0.000000   817.576461   689.864335  1231.495062     0.000000
910000.000 80000.000 910000.038 80000.015  1128.281024     1.128281     0.037507     0.014816  2701.113394     6.761064  2726.053363   -18.178905     0.000000   787.559932   667.879162  1188.287429     0.000000
920000.000 80000.000 920000.037 80000.014  1088.525608     1.088526     0.037063     0.013893  2605.800030     6.661429  2631.202629   -18.741170     0.000000   761.212456   643.744780  1147.459324     0.000000
930000.000 80000.000 930000.037 80000.013  1051.903956     1.051904     0.036635     0.013044  2516.923018     7.646477  2540.258815   -15.689320     0.000000   732.779380   623.297714  1106.758008     0.000000
940000.000 80000.000 940000.036 80000.012  1014.557135     1.014557     0.036221     0.012263  2427.642641     7.294484  2451.087006   -16.149882     0.000000   707.949307   600.659340  1068.344911     0.000000
950000.000 80000.000 950000.036 80000.012   980.698124     0.980698     0.035822     0.011547  2345.508783     8.166716  2366.787983   -13.112484     0.000000   681.409552   581.862633  1030.527132     0.000000
960000.000 80000.000 960000.035 80000.011   946.068526     0.946069     0.035437     0.010889  2262.941772     7.622690  2284.042754   -13.478291     0.000000   658.314614   560.901970   994.855796     0.000000
970000.000 80000.000 970000.035 80000.010   915.124986     0.915125     0.035065     0.010286  2187.915298     8.384669  2206.846759   -10.546793     0.000000   633.878616   543.801595   960.159573     0.000000
980000.000 80000.000 980000.035 80000.010   883.393187     0.883393     0.034705     0.009733  2112.442341     7.701307  2130.978677   -10.835028     0.000000   612.661501   524.618398   927.432540     0.000000
990000.000 80000.000 990000.034 80000.009   855.417298     0.855417     0.034358     0.009225  2044.643612     8.357904  2061.085815    -8.084299     0.000000   590.452004   509.208229   895.976942     0.000000
1000000.000 80000.000 1000000.034 80000.009   826.657882     0.826658     0.034021     0.008761  1976.398435     7.580481  1992.296785    -8.317869     0.000000   571.190080   491.835795   866.291557     0.000000
1010000.000 80000.000 1010000.034 80000.008   801.620828     0.801621     0.033696     0.008335  1915.751739     8.138247  1929.694819    -5.804833     0.000000   551.253886   478.070080   838.095934     0.000000
1020000.000 80000.000 1020000.033 80000.008   775.822579     0.775823     0.033381     0.007944  1854.669205     7.304986  1867.982568    -6.008378     0.000000   533.968267   462.489359   811.461883     0.000000
1030000.000 80000.000 1030000.033 80000.008   753.632172     0.753632     0.033075     0.007585  1800.945597     7.771616  1812.488830    -3.771617     0.000000   516.287747   450.293495   786.463844     0.000000
1040000.000 80000.000 1040000.033 80000.007   730.716259     0.730716     0.032779     0.007256  1746.804854     6.914167  1757.687181    -3.968160     0.000000   500.951734   436.445675   762.819139     0.000000
1050000.000 80000.000 1050000.032 80000.007   711.232499     0.711232     0.032491     0.006953  1699.659949     7.298047  1708.986445    -2.028448     0.000000   485.456017   425.725275   740.891182     0.000000
1060000.000 80000.000 1060000.032 80000.007   691.068578     0.691069     0.032210     0.006674  1652.122541     6.442047  1660.801404    -2.236815     0.000000   472.003029   413.522739   720.116672     0.000000
1070000.000 80000.000 1070000.032 80000.006   674.117168     0.674117     0.031938     0.006417  1611.129318     6.751885  1618.479741    -0.598538     0.000000   458.578841   404.171032   701.081460     0.000000
1080000.000 80000.000 1080000.032 80000.006   656.537437     0.656537     0.031672     0.006179  1569.772292     5.917556  1576.521549    -0.831701     0.000000   446.910025   393.506612   683.013992     0.000000
1090000.000 80000.000 1090000.031 80000.006   641.921328     0.641921     0.031412     0.005959  1534.449109     6.162078  1540.096281     0.514906     0.000000   435.412142   385.410250   666.658291     0.000000
1100000.000 80000.000 1100000.031 80000.006   626.732569     0.626733     0.031159     0.005755  1498.793319     5.364846  1503.907667     0.250497     0.000000   425.403780   376.164790   651.102654     0.000000
1110000.000 80000.000 1110000.031 80000.006   614.241655     0.614242     0.030911     0.005565  1468.627406     5.552566  1472.853517     1.326454     0.000000   415.664977   369.208220   637.189909     0.000000
1120000.000 80000.000 1120000.031 80000.005   601.235394     0.601235     0.030668     0.005387  1438.161272     4.803673  1441.934352     1.030594     0.000000   407.175710   361.256533   623.929630     0.000000
1130000.000 80000.000 1130000.030 80000.005   590.654484     0.590654     0.030429     0.005221  1412.628048     4.942714  1415.705874     1.864888     0.000000   399.016025   355.325134   612.211106     0.000000
1140000.000 80000.000 1140000.030 80000.005   579.615391     0.579615     0.030195     0.005064  1386.827124     4.249815  1389.534376     1.542563     0.000000   391.893776   348.540516   601.018085     0.000000
1150000.000 80000.000 1150000.030 80000.005   570.730623     0.570731     0.029965     0.004917  1365.405719     4.347776  1367.584715     2.168780     0.000000   385.128785   343.522764   591.242444     0.000000
1160000.000 80000.000 1160000.030 80000.005   561.443305     0.561443     0.029738     0.004777  1343.748429     3.715502  1345.635295     1.828636     0.000000   379.217172   337.780301   581.885352     0.000000
1170000.000 80000.000 1170000.030 80000.005   554.047160     0.554047     0.029515     0.004644  1325.933807     3.779377  1327.431331     2.281853     0.000000   373.665022   333.569223   573.806556     0.000000
1180000.000 80000.000 1180000.029 80000.005   546.301512     0.546302     0.029295     0.004518  1307.913774     3.209855  1309.189150     1.934479     0.000000   368.808989   328.748147   566.057877     0.000000
1190000.000 80000.000 1190000.029 80000.004   540.196604     0.540197     0.029077     0.004397  1293.225872     3.245978  1294.223155     2.248695     0.000000   364.295966   325.242310   559.441352     0.000000
1200000.000 80000.000 1200000.029 80000.004   533.791889     0.533792     0.028862     0.004281  1278.361219     2.739313  1279.195508     1.905025     0.000000   360.346416   321.227646   553.083003     0.000000
1210000.000 80000.000 1210000.029 80000.004   528.793679     0.528794     0.028649     0.004169  1266.351496     2.753334  1266.993546     2.111284     0.000000   356.710976   318.331850   547.710086     0.000000
1220000.000 80000.000 1220000.028 80000.004   523.541492     0.523541     0.028439     0.004061  1254.191546     2.308036  1254.718258     1.781324     0.000000   353.528273   315.015557   542.537607     0.000000
1230000.000 80000.000 1230000.028 80000.004   519.480102     0.519480     0.028230     0.003956  1244.447320     2.304925  1244.845664     1.906581     0.000000   350.623600   312.641352   538.208411     0.000000
1240000.000 80000.000 1240000.028 80000.004   515.206393     0.515206     0.028022     0.003854  1234.577056     1.918287  1234.896791     1.598552     0.000000   348.079936   309.923112   534.033803     0.000000
1250000.000 80000.000 1250000.028 80000.004   511.927646     0.511928     0.027816     0.003755  1226.724001     1.902350  1226.961157     1.665194     0.000000   345.775205   307.989185   530.568715     0.000000
1260000.000 80000.000 1260000.028 80000.004   508.473934     0.508474     0.027612     0.003659  1218.766665     1.570777  1218.952336     1.385106     0.000000   343.755928   305.776914   527.222076     0.000000
1270000.000 80000.000 1270000.027 80000.004   505.839781     0.505840     0.027408     0.003564  1212.469786     1.545689  1212.604476     1.410998     0.000000   341.936540   304.209368   524.462160     0.000000
1280000.000 80000.000 1280000.027 80000.003   503.063718     0.503064     0.027206     0.003472  1206.087938     1.264986  1206.190347     1.162577     0.000000   340.340619   302.419519   521.792331     0.000000
1290000.000 80000.000 1290000.027 80000.003   500.952151     0.500952     0.027004     0.003382  1201.051330     1.233831  1201.123703     1.161458     0.000000   338.907682   301.152019   519.598894     0.000000
1300000.000 80000.000 1300000.027 80000.003   498.727545     0.498728     0.026804     0.003293  1195.946675     0.999434  1195.999781     0.946328     0.000000   337.647510   299.709691   517.473325     0.000000
1310000.000 80000.000 1310000.027 80000.003   497.032123     0.497032     0.026604     0.003206  1191.912338     0.964758  1191.948693     0.928403     0.000000   336.516828   298.683476   515.726913     0.000000
1320000.000 80000.000 1320000.026 80000.003   495.248549     0.495249     0.026405     0.003121  1187.824585     0.771933  1187.850089     0.746429     0.000000   335.517557   297.522344   514.030963     0.000000
1330000.000 80000.000 1330000.026 80000.003   493.877632     0.493878     0.026206     0.003037  1184.570526     0.735790  1184.587293     0.719023     0.000000   334.618344   296.686091   512.629998     0.000000
1340000.000 80000.000 1340000.026 80000.003   492.439717     0.492440     0.026008     0.002955  1181.275527     0.579794  1181.286606     0.568714     0.000000   333.816932   295.748187   511.265845     0.000000
1350000.000 80000.000 1350000.026 80000.003   491.315479     0.491315     0.025811     0.002874  1178.613344     0.543806  1178.620243     0.536906     0.000000   333.090405   295.057740   510.125049     0.000000
1360000.000 80000.000 1360000.026 80000.003   490.141965     0.490142     0.025614     0.002795  1175.920710     0.420005  1175.924896     0.415820     0.000000   332.434508   294.293089   509.010361     0.000000
1370000.000 80000.000 1370000.025 80000.003   489.199276     0.489199     0.025417     0.002717  1173.692850     0.385411  1173.695260     0.383002     0.000000   331.832471   293.711066   508.059111     0.000000
1380000.000 80000.000 1380000.025 80000.003   488.221918     0.488222     0.025221     0.002640  1171.443219     0.289384  1171.444495     0.288107     0.000000   331.279269   293.077204   507.125592     0.000000
1390000.000 80000.000 1390000.025 80000.003   487.407139     0.487407     0.025025     0.002565  1169.520040     0.257094  1169.520686     0.256448     0.000000   330.762762   292.572507   506.306267     0.000000